# vtk DataFile Version 3.0
vtk output
ASCII
DATASET POLYDATA
POINTS 876 float
-0.0357835 0.0290905 0.740057 -0.033575 0.0318783 0.736794 -0.0400693 0.0303285 0.738214 
-0.0340052 -0.0196858 0.70316 -0.0404338 -0.0178288 0.700395 -0.037121 -0.0136472 0.6955 
-0.0378607 0.0331163 0.734951 -0.0306924 -0.0155041 0.698265 -0.0378607 0.0331163 0.734951 
-0.033575 0.0318783 0.736794 -0.0400693 0.0303285 0.738214 -0.0357835 0.0290905 0.740057 
-0.0306924 -0.0155041 0.698265 -0.0340052 -0.0196858 0.70316 -0.0404338 -0.0178288 0.700395 
-0.037121 -0.0136472 0.6955 -0.0799082 -0.0585026 0.755513 -0.0742127 -0.0559372 0.760846 
-0.079927 -0.0542866 0.758388 -0.0741938 -0.0601532 0.75797 -0.0799181 -0.0627497 0.752683 
-0.0742038 -0.0644003 0.75514 -0.070891 -0.0602186 0.750246 -0.0766053 -0.058568 0.747788 
-0.0794879 -0.0111856 0.786318 -0.0790906 -0.01493 0.782879 -0.0766878 -0.0544262 0.750762 
-0.076799 -0.0503176 0.753781 -0.0787217 -0.0187134 0.77948 -0.0783813 -0.0225354 0.776121 
-0.076939 -0.0462427 0.756843 -0.0780694 -0.0263952 0.772803 -0.0771078 -0.0422021 0.75995 
-0.077786 -0.0302924 0.769526 -0.0773052 -0.0381964 0.763099 -0.0775313 -0.0342263 0.766292 
-0.071817 -0.035877 0.768749 -0.0720717 -0.031943 0.771984 -0.0723551 -0.0280458 0.77526 
-0.072667 -0.024186 0.778578 -0.0730074 -0.0203641 0.781937 -0.0733763 -0.0165806 0.785336 
-0.0737736 -0.0128362 0.788775 -0.0759821 -0.015624 0.792038 -0.0816965 -0.0139734 0.789581 
-0.0813905 -0.0178445 0.786269 -0.0811132 -0.0217527 0.782999 -0.0808644 -0.0256976 0.779771 
-0.0806444 -0.0296785 0.776585 -0.080453 -0.0336948 0.773443 -0.0802903 -0.037746 0.770343 
-0.0801563 -0.0418314 0.767288 -0.0800511 -0.0459503 0.764276 -0.0799747 -0.0501023 0.76131 
-0.0742603 -0.0517529 0.763767 -0.0743368 -0.0476009 0.766734 -0.074442 -0.043482 0.769745 
-0.0745759 -0.0393966 0.772801 -0.0747386 -0.0353455 0.7759 -0.07493 -0.0313291 0.779043 
-0.0751501 -0.0273482 0.782228 -0.0753989 -0.0234033 0.785457 -0.0756762 -0.0194951 0.788727 
-0.0709735 -0.0560769 0.75322 -0.0710847 -0.0519682 0.756238 -0.0712247 -0.0478933 0.759301 
-0.0713934 -0.0438527 0.762407 -0.0715908 -0.039847 0.765557 -0.0799082 -0.0585026 0.755513 
-0.079927 -0.0542866 0.758388 -0.0799181 -0.0627497 0.752683 -0.0742038 -0.0644003 0.75514 
-0.0766053 -0.058568 0.747788 -0.0766878 -0.0544262 0.750762 -0.070891 -0.0602186 0.750246 
-0.0709735 -0.0560769 0.75322 -0.0741938 -0.0601532 0.75797 -0.0742127 -0.0559372 0.760846 
-0.0742603 -0.0517529 0.763767 -0.0743368 -0.0476009 0.766734 -0.074442 -0.043482 0.769745 
-0.0745759 -0.0393966 0.772801 -0.0747386 -0.0353455 0.7759 -0.07493 -0.0313291 0.779043 
-0.0751501 -0.0273482 0.782228 -0.0753989 -0.0234033 0.785457 -0.0756762 -0.0194951 0.788727 
-0.0759821 -0.015624 0.792038 -0.0737736 -0.0128362 0.788775 -0.0794879 -0.0111856 0.786318 
-0.0790906 -0.01493 0.782879 -0.0787217 -0.0187134 0.77948 -0.0783813 -0.0225354 0.776121 
-0.0780694 -0.0263952 0.772803 -0.077786 -0.0302924 0.769526 -0.0775313 -0.0342263 0.766292 
-0.0773052 -0.0381964 0.763099 -0.0771078 -0.0422021 0.75995 -0.076939 -0.0462427 0.756843 
-0.076799 -0.0503176 0.753781 -0.0816965 -0.0139734 0.789581 -0.0813905 -0.0178445 0.786269 
-0.0811132 -0.0217527 0.782999 -0.0808644 -0.0256976 0.779771 -0.0806444 -0.0296785 0.776585 
-0.080453 -0.0336948 0.773443 -0.0802903 -0.037746 0.770343 -0.0801563 -0.0418314 0.767288 
-0.0800511 -0.0459503 0.764276 -0.0799747 -0.0501023 0.76131 -0.0733763 -0.0165806 0.785336 
-0.0730074 -0.0203641 0.781937 -0.072667 -0.024186 0.778578 -0.0723551 -0.0280458 0.77526 
-0.0720717 -0.031943 0.771984 -0.071817 -0.035877 0.768749 -0.0715908 -0.039847 0.765557 
-0.0713934 -0.0438527 0.762407 -0.0712247 -0.0478933 0.759301 -0.0710847 -0.0519682 0.756238 
-0.131337 -0.043647 0.733396 -0.125642 -0.0410816 0.738729 -0.131356 -0.039431 0.736272 
-0.125623 -0.0452976 0.735853 -0.131347 -0.0478941 0.730566 -0.125633 -0.0495448 0.733024 
-0.12232 -0.0453631 0.728129 -0.128034 -0.0437125 0.725672 -0.130917 0.00366994 0.764201 
-0.13052 -7.44496e-05 0.760762 -0.128117 -0.0395707 0.728646 -0.128228 -0.035462 0.731664 
-0.130151 -0.00385789 0.757363 -0.12981 -0.00767983 0.754004 -0.128368 -0.0313871 0.734727 
-0.129498 -0.0115397 0.750686 -0.128537 -0.0273465 0.737833 -0.129215 -0.0154369 0.74741 
-0.128734 -0.0233409 0.740983 -0.12896 -0.0193708 0.744175 -0.123246 -0.0210214 0.746632 
-0.123501 -0.0170875 0.749867 -0.123784 -0.0131903 0.753144 -0.124096 -0.00933045 0.756462 
-0.124436 -0.00550851 0.75982 -0.124805 -0.00172507 0.763219 -0.125203 0.00201932 0.766658 
-0.127411 -0.000768462 0.769921 -0.133125 0.000882156 0.767464 -0.13282 -0.0029889 0.764153 
-0.132542 -0.00689717 0.760882 -0.132293 -0.010842 0.757654 -0.132073 -0.014823 0.754469 
-0.131882 -0.0188393 0.751326 -0.131719 -0.0228904 0.748226 -0.131585 -0.0269758 0.745171 
-0.13148 -0.0310948 0.74216 -0.131404 -0.0352467 0.739193 -0.125689 -0.0368973 0.74165 
-0.125766 -0.0327454 0.744617 -0.125871 -0.0286264 0.747628 -0.126005 -0.0245411 0.750684 
-0.126168 -0.0204899 0.753783 -0.126359 -0.0164736 0.756926 -0.126579 -0.0124927 0.760112 
-0.126828 -0.00854779 0.76334 -0.127105 -0.00463952 0.76661 -0.122402 -0.0412213 0.731103 
-0.122514 -0.0371126 0.734121 -0.122654 -0.0330377 0.737184 -0.122822 -0.0289971 0.74029 
-0.12302 -0.0249915 0.74344 -0.131337 -0.043647 0.733396 -0.131356 -0.039431 0.736272 
-0.131347 -0.0478941 0.730566 -0.125633 -0.0495448 0.733024 -0.128034 -0.0437125 0.725672 
-0.128117 -0.0395707 0.728646 -0.12232 -0.0453631 0.728129 -0.122402 -0.0412213 0.731103 
-0.125623 -0.0452976 0.735853 -0.125642 -0.0410816 0.738729 -0.125689 -0.0368973 0.74165 
-0.125766 -0.0327454 0.744617 -0.125871 -0.0286264 0.747628 -0.126005 -0.0245411 0.750684 
-0.126168 -0.0204899 0.753783 -0.126359 -0.0164736 0.756926 -0.126579 -0.0124927 0.760112 
-0.126828 -0.00854779 0.76334 -0.127105 -0.00463952 0.76661 -0.127411 -0.000768462 0.769921 
-0.125203 0.00201932 0.766658 -0.130917 0.00366994 0.764201 -0.13052 -7.44496e-05 0.760762 
-0.130151 -0.00385789 0.757363 -0.12981 -0.00767983 0.754004 -0.129498 -0.0115397 0.750686 
-0.129215 -0.0154369 0.74741 -0.12896 -0.0193708 0.744175 -0.128734 -0.0233409 0.740983 
-0.128537 -0.0273465 0.737833 -0.128368 -0.0313871 0.734727 -0.128228 -0.035462 0.731664 
-0.133125 0.000882156 0.767464 -0.13282 -0.0029889 0.764153 -0.132542 -0.00689717 0.760882 
-0.132293 -0.010842 0.757654 -0.132073 -0.014823 0.754469 -0.131882 -0.0188393 0.751326 
-0.131719 -0.0228904 0.748226 -0.131585 -0.0269758 0.745171 -0.13148 -0.0310948 0.74216 
-0.131404 -0.0352467 0.739193 -0.124805 -0.00172507 0.763219 -0.124436 -0.00550851 0.75982 
-0.124096 -0.00933045 0.756462 -0.123784 -0.0131903 0.753144 -0.123501 -0.0170875 0.749867 
-0.123246 -0.0210214 0.746632 -0.12302 -0.0249915 0.74344 -0.122822 -0.0289971 0.74029 
-0.122654 -0.0330377 0.737184 -0.122514 -0.0371126 0.734121 -0.0966412 0.0466696 0.713886 
-0.0987184 0.0506953 0.70878 -0.100927 0.0479076 0.712043 -0.0944327 0.0494574 0.710623 
-0.0894072 0.00145599 0.673015 -0.09272 -0.00272567 0.67791 -0.0991486 -0.000868732 0.675145 
-0.0958358 0.00331294 0.670251 -0.0944327 0.0494574 0.710623 -0.0987184 0.0506953 0.70878 
-0.0966412 0.0466696 0.713886 -0.100927 0.0479076 0.712043 -0.0958358 0.00331294 0.670251 
-0.0991486 -0.000868732 0.675145 -0.09272 -0.00272567 0.67791 -0.0894072 0.00145599 0.673015 
-0.0687732 -0.150267 0.684837 -0.125891 -0.133556 0.660342 -0.0687481 -0.150062 0.684916 
-0.125917 -0.133761 0.660263 -0.068812 -0.150478 0.684786 -0.125955 -0.133972 0.660212 
-0.0688639 -0.150692 0.684763 -0.126007 -0.134185 0.660189 -0.0689278 -0.150903 0.684769 
-0.126071 -0.134397 0.660195 -0.126146 -0.134602 0.660231 -0.0690023 -0.151108 0.684805 
-0.0711113 -0.125279 0.707058 -0.0708844 -0.118464 0.711108 -0.0708087 -0.1118 0.715408 
-0.0708845 -0.1053 0.71995 -0.0711116 -0.0989733 0.724728 -0.0682197 -0.144179 0.687639 
-0.125363 -0.127673 0.663065 -0.128255 -0.0824671 0.700154 -0.128028 -0.0887935 0.695376 
-0.127952 -0.0952942 0.690834 -0.128028 -0.101958 0.686534 -0.128255 -0.108773 0.682484 
-0.126229 -0.134796 0.660295 -0.0690859 -0.151302 0.684869 -0.0691769 -0.151481 0.68496 
-0.0692734 -0.151642 0.685076 -0.0693734 -0.151782 0.685215 -0.069475 -0.151896 0.685374 
-0.0695759 -0.151984 0.68555 -0.0714892 -0.132234 0.703265 -0.128633 -0.115728 0.678691 
-0.0714896 -0.0928319 0.729732 -0.128633 -0.0763257 0.705158 -0.0720178 -0.0868862 0.734954 
-0.129161 -0.0703801 0.71038 -0.0726953 -0.0811464 0.740385 -0.129839 -0.0646403 0.715811 
-0.0735211 -0.0756225 0.746015 -0.130664 -0.0591163 0.721441 -0.124039 -0.0507529 0.711652 
-0.0668955 -0.0672591 0.736226 -0.0665526 -0.0737493 0.731069 -0.0663023 -0.080352 0.726052 
-0.0661447 -0.0870634 0.721178 -0.0660798 -0.0938796 0.716449 -0.0661078 -0.100796 0.711868 
-0.0662285 -0.10781 0.707438 -0.066442 -0.114916 0.703161 -0.066748 -0.12211 0.69904 
-0.0671465 -0.129388 0.695078 -0.0676371 -0.136746 0.691277 -0.12478 -0.12024 0.666703 
-0.12429 -0.112882 0.670504 -0.123891 -0.105604 0.674466 -0.123585 -0.0984097 0.678587 
-0.123372 -0.0913038 0.682864 -0.123251 -0.0842903 0.687294 -0.123223 -0.0773734 0.691875 
-0.123288 -0.0705573 0.696604 -0.123446 -0.0638458 0.701478 -0.123696 -0.0572431 0.706495 
-0.126719 -0.135478 0.660976 -0.126618 -0.13539 0.6608 -0.126517 -0.135275 0.660641 
-0.126417 -0.135136 0.660502 -0.12632 -0.134975 0.660386 -0.126817 -0.135537 0.661165 
-0.0696741 -0.152043 0.685739 -0.0720172 -0.139317 0.699736 -0.129161 -0.12281 0.675162 
-0.130227 -0.137109 0.668038 -0.073084 -0.153615 0.692612 -0.0726947 -0.146515 0.696476 
-0.129838 -0.130009 0.671902 -0.130559 -0.136388 0.669295 -0.130285 -0.137128 0.668159 
-0.0731418 -0.153634 0.692734 -0.073416 -0.152894 0.693869 -0.13057 -0.13651 0.669237 
-0.0734263 -0.153016 0.693811 -0.130572 -0.136625 0.669166 -0.0734291 -0.153131 0.69374 
-0.130568 -0.136732 0.669082 -0.0734242 -0.153239 0.693656 -0.130555 -0.136829 0.668988 
[...]
CELL_DATA 534
NORMALS Normals float
-0.047149 0.774997 0.630204 0.887923 -0.256483 0.381849 -0.459067 -0.546553 0.700383 
-0.459069 -0.546553 0.700382 0.0471502 -0.774999 -0.630201 -0.889093 0.286851 -0.356693 
-0.889095 0.286849 -0.356691 0.457571 0.577569 -0.67605 -0.0471522 0.775003 0.630196 
0.457566 0.577571 -0.676052 0.0471504 -0.774999 -0.630201 0.887924 -0.256482 0.381847 
-0.459971 -0.501751 0.73258 -0.459977 -0.501742 0.732582 -0.459988 -0.49157 0.739439 
-0.459987 -0.491571 0.739439 0.0471533 -0.775 -0.6302 0.0471533 -0.775 -0.6302 
-0.887925 0.256482 -0.381847 -0.88795 0.256449 -0.381809 -0.887929 0.256476 -0.38184 
-0.887899 0.256514 -0.381886 -0.887919 0.256488 -0.381855 -0.887923 0.256484 -0.38185 
-0.887888 0.256528 -0.381902 -0.887921 0.256486 -0.381853 -0.887993 0.256395 -0.381746 
-0.887939 0.256464 -0.381826 -0.887936 0.256467 -0.38183 -0.887888 0.256527 -0.381901 
0.457271 0.582315 -0.67217 0.45727 0.582315 -0.672171 0.456622 0.591742 -0.664332 
0.456623 0.591743 -0.664331 0.455907 0.601075 -0.656397 0.455901 0.601071 -0.656405 
0.455116 0.610321 -0.648365 0.455121 0.610325 -0.648358 0.454268 0.619477 -0.640226 
0.454268 0.619477 -0.640226 0.453345 0.628542 -0.631992 0.45334 0.628538 -0.631999 
-0.0471455 0.775001 0.630198 -0.0471457 0.775001 0.630199 -0.887926 0.256482 -0.381845 
-0.887926 0.256482 -0.381844 -0.887923 0.256483 -0.38185 -0.887924 0.256483 -0.381848 
-0.887919 0.256486 -0.381856 -0.887931 0.256476 -0.381837 -0.88791 0.256496 -0.381872 
-0.887927 0.256479 -0.381843 -0.887941 0.256464 -0.38182 -0.887898 0.256509 -0.38189 
-0.888002 0.2564 -0.381721 -0.887906 0.256501 -0.381876 -0.459897 -0.51183 0.72562 
-0.459891 -0.51184 0.725618 0.887924 -0.256483 0.381848 0.887925 -0.256481 0.381847 
0.887925 -0.256481 0.381847 0.887928 -0.256475 0.381843 0.887923 -0.256484 0.381849 
0.887918 -0.256492 0.381855 0.887931 -0.256471 0.381838 0.887916 -0.256495 0.381859 
0.887925 -0.25648 0.381846 0.887928 -0.256477 0.381842 0.887936 -0.256465 0.381831 
0.887909 -0.256503 0.381868 0.887926 -0.25648 0.381846 0.887927 -0.256478 0.381843 
0.887922 -0.256485 0.381851 0.887936 -0.256468 0.381831 0.887915 -0.256493 0.381861 
0.887949 -0.25645 0.38181 0.887892 -0.256522 0.381895 0.88787 -0.25655 0.381928 
0.887903 -0.256508 0.381879 0.888041 -0.256334 0.381675 0.887853 -0.256574 0.381952 
0.887808 -0.25663 0.382018 0.457849 0.572809 -0.6799 0.457843 0.572803 -0.679909 
0.458353 0.563198 -0.687546 0.458359 0.563203 -0.687539 0.458799 0.553518 -0.695069 
0.458794 0.553514 -0.695076 0.459165 0.543759 -0.702491 0.459166 0.543759 -0.702491 
0.459468 0.533898 -0.709818 0.459474 0.533903 -0.70981 0.459707 0.523969 -0.717026 
0.459707 0.523968 -0.717026 -0.456063 -0.599048 0.658139 -0.456063 -0.599048 0.658139 
-0.456764 -0.589703 0.666046 -0.45677 -0.589695 0.666049 -0.457402 -0.580262 0.673854 
-0.457402 -0.580262 0.673854 -0.457965 -0.570735 0.681564 -0.457966 -0.570734 0.681564 
-0.45846 -0.561123 0.68917 -0.458454 -0.561132 0.689167 -0.45888 -0.551434 0.69667 
-0.458886 -0.551426 0.696673 -0.459242 -0.541644 0.704072 -0.459229 -0.541662 0.704067 
-0.459517 -0.531798 0.711362 -0.459516 -0.531798 0.711362 -0.459734 -0.521866 0.718541 
-0.459748 -0.521846 0.718546 -0.459977 -0.501733 0.732587 -0.45997 -0.501744 0.732585 
-0.459981 -0.49158 0.739437 -0.459987 -0.49157 0.739439 0.0471526 -0.775 -0.6302 
0.0471528 -0.775 -0.6302 -0.887924 0.256482 -0.381848 -0.887891 0.256523 -0.381896 
-0.887905 0.256506 -0.381876 -0.88792 0.256487 -0.381854 -0.887941 0.25646 -0.381823 
-0.887894 0.25652 -0.381893 -0.887957 0.256441 -0.381798 -0.887932 0.256472 -0.381835 
-0.887933 0.256471 -0.381834 -0.887962 0.256435 -0.381792 -0.887883 0.256534 -0.381909 
-0.887935 0.256468 -0.381832 0.457266 0.582317 -0.672172 0.457265 0.582316 -0.672173 
0.456618 0.591743 -0.664335 0.456618 0.591743 -0.664334 0.455901 0.601084 -0.656393 
0.455901 0.601083 -0.656394 0.455116 0.610322 -0.648365 0.455121 0.610325 -0.648358 
0.454267 0.619476 -0.640227 0.454268 0.619477 -0.640226 0.453347 0.62853 -0.632002 
0.453346 0.62853 -0.632003 -0.0471508 0.775003 0.630196 -0.0471508 0.775003 0.630196 
-0.887926 0.256478 -0.381846 -0.887928 0.256479 -0.381842 -0.887923 0.256481 -0.38185 
-0.887933 0.256474 -0.381832 -0.887922 0.256483 -0.381852 -0.887934 0.256472 -0.381832 
-0.88792 0.256485 -0.381855 -0.887929 0.256476 -0.38184 -0.887913 0.256493 -0.381866 
-0.887979 0.256424 -0.381758 -0.887864 0.256545 -0.381946 -0.888119 0.256277 -0.381531 
-0.459884 -0.51185 0.725615 -0.459897 -0.51183 0.72562 0.887925 -0.256479 0.381848 
0.887925 -0.25648 0.381848 0.887924 -0.256482 0.381848 0.887918 -0.256492 0.381854 
0.887924 -0.256482 0.381847 0.887931 -0.256471 0.38184 0.887919 -0.256489 0.381854 
0.887929 -0.256475 0.381842 0.88792 -0.256488 0.381853 0.887915 -0.256495 0.38186 
0.887928 -0.256477 0.381843 0.88792 -0.256488 0.381853 0.887925 -0.256481 0.381847 
0.887929 -0.256476 0.381841 0.887906 -0.256505 0.381874 0.887947 -0.256454 0.381815 
0.887912 -0.256498 0.381866 0.887945 -0.256456 0.381817 0.887898 -0.256515 0.381886 
0.887959 -0.256438 0.381797 0.887973 -0.256421 0.381776 0.887824 -0.256608 0.381995 
0.887995 -0.256391 0.381745 0.888151 -0.256194 0.381513 0.457845 0.572797 -0.679913 
0.45785 0.572802 -0.679905 0.458359 0.563209 -0.687534 0.458354 0.563204 -0.687541 
0.458795 0.553513 -0.695076 0.4588 0.553518 -0.695068 0.459172 0.543757 -0.702488 
0.459159 0.543746 -0.702505 0.459461 0.533901 -0.70982 0.459467 0.533907 -0.709813 
0.4597 0.52397 -0.717029 0.459707 0.523976 -0.71702 -0.456063 -0.599049 0.658139 
-0.45607 -0.59904 0.658142 -0.456764 -0.589703 0.666046 -0.45677 -0.589694 0.666049 
-0.457403 -0.580255 0.67386 -0.457397 -0.580263 0.673857 -0.45796 -0.570743 0.681561 
-0.457959 -0.570744 0.68156 -0.458454 -0.561125 0.689173 -0.458453 -0.561125 0.689173 
-0.458879 -0.551435 0.696671 -0.458879 -0.551434 0.696671 -0.459236 -0.541654 0.704069 
-0.459243 -0.541644 0.704072 -0.45953 -0.531794 0.711356 -0.45953 -0.531794 0.711356 
-0.459748 -0.521845 0.718546 -0.459735 -0.521864 0.718541 -0.0471598 0.774994 0.630206 
-0.0471487 0.774997 0.630204 0.885374 -0.225714 0.406407 0.885374 -0.225714 0.406407 
-0.459069 -0.546553 0.700383 -0.459074 -0.546551 0.700381 -0.887922 0.256485 -0.381851 
-0.887924 0.256482 -0.381848 0.457566 0.577571 -0.676052 0.457564 0.577571 -0.676053 
0.0471503 -0.774999 -0.630201 0.0471505 -0.774999 -0.6302 0.445769 0.274985 -0.851865 
0.445763 0.274937 -0.851883 0.424948 0.139598 -0.894389 0.424951 0.139612 -0.894385 
0.395384 0.00132795 -0.918515 0.395443 0.00156745 -0.918489 0.357743 -0.136778 -0.923749 
0.357752 -0.136746 -0.92375 0.312735 -0.27215 -0.910017 0.312742 -0.272131 -0.910021 
0.887914 -0.256495 0.381862 0.88792 -0.256487 0.381854 0.88792 -0.256487 0.381853 
0.887965 -0.25643 0.381787 0.887921 -0.256487 0.381853 0.887931 -0.256473 0.381837 
0.887926 -0.256479 0.381844 0.887927 -0.256479 0.381844 0.887932 -0.256473 0.381836 
0.887923 -0.256484 0.38185 0.452755 0.340682 -0.823983 0.452756 0.340684 -0.823982 
-0.887923 0.256483 -0.381849 -0.887905 0.256506 -0.381877 -0.887939 0.256464 -0.381826 
-0.887919 0.256488 -0.381855 -0.887937 0.256466 -0.381829 -0.887949 0.25645 -0.381812 
-0.887873 0.256546 -0.381922 -0.887971 0.256423 -0.381779 -0.887923 0.256483 -0.381849 
-0.887881 0.256539 -0.38191 -0.887971 0.25642 -0.38178 0.261191 -0.402193 -0.877508 
0.261198 -0.402177 -0.877513 0.887965 -0.256428 0.381789 0.887917 -0.256491 0.381858 
0.887903 -0.256509 0.381879 0.887884 -0.256533 0.381906 0.88796 -0.256437 0.381796 
0.887931 -0.256473 0.381837 0.887924 -0.256482 0.381848 -0.457514 -0.406451 0.790872 
-0.457514 -0.406452 0.790872 -0.459097 -0.442497 0.770341 -0.459098 -0.442491 0.770345 
-0.45989 -0.477771 0.74849 -0.459889 -0.477775 0.748487 -0.459889 -0.512227 0.725345 
-0.459889 -0.512223 0.725348 -0.459097 -0.545798 0.700952 -0.459096 -0.545803 0.700949 
-0.457512 -0.578434 0.67535 -0.457512 -0.578434 0.67535 -0.455141 -0.610067 0.648587 
-0.455141 -0.610067 0.648587 -0.451985 -0.640653 0.620704 -0.451984 -0.640658 0.6207 
-0.44805 -0.670136 0.591751 -0.448051 -0.670131 0.591755 -0.0471501 0.774999 0.630201 
-0.0471502 0.774999 0.630201 0.887924 -0.256481 0.381848 0.887924 -0.256483 0.381848 
0.887925 -0.25648 0.381847 0.887924 -0.256482 0.381848 0.887924 -0.256482 0.381848 
0.887924 -0.256483 0.381848 0.887926 -0.256479 0.381846 0.887922 -0.256485 0.38185 
0.887923 -0.256483 0.381849 0.887925 -0.256481 0.381847 0.887922 -0.256485 0.38185 
0.887945 -0.256452 0.381818 0.887928 -0.256476 0.381842 0.887923 -0.256484 0.38185 
0.887801 -0.256638 0.382028 0.454598 0.362578 -0.813559 0.454597 0.362572 -0.813562 
-0.887925 0.25648 -0.381846 -0.887922 0.256485 -0.381851 -0.887932 0.256471 -0.381837 
-0.887926 0.256479 -0.381845 -0.887911 0.256502 -0.381865 -0.887925 0.25648 -0.381846 
-0.887942 0.256453 -0.381824 -0.887924 0.256483 -0.381849 -0.887927 0.256477 -0.381844 
-0.887922 0.256487 -0.38185 -0.887927 0.256477 -0.381845 -0.887924 0.256482 -0.381847 
-0.887924 0.256483 -0.381847 -0.887924 0.256481 -0.381848 0.458128 0.567662 -0.684016 
0.458128 0.567662 -0.684016 0.458997 0.548473 -0.698927 0.458997 0.548474 -0.698926 
0.459595 0.528952 -0.71343 0.459596 0.528956 -0.713426 0.459922 0.509128 -0.727503 
0.459921 0.509123 -0.727507 0.459975 0.488997 -0.741151 0.459976 0.489002 -0.741147 
0.459758 0.468581 -0.754357 0.459758 0.468576 -0.75436 0.459268 0.447881 -0.767122 
0.459268 0.447886 -0.767119 0.458507 0.426924 -0.779427 0.458506 0.426919 -0.779431 
0.457474 0.405714 -0.791274 0.457473 0.405709 -0.791277 0.456169 0.384249 -0.80266 
0.456171 0.38426 -0.802653 -0.887801 0.256638 -0.382028 -0.887925 0.25648 -0.381846 
-0.887926 0.25648 -0.381846 -0.887965 0.256429 -0.381787 -0.887912 0.256497 -0.381865 
-0.887925 0.256481 -0.381847 -0.887894 0.256521 -0.381891 0.204435 -0.523596 -0.827076 
0.204452 -0.523561 -0.827093 0.143478 -0.634277 -0.759675 0.143458 -0.634312 -0.75965 
0.0794547 -0.732125 -0.676521 0.0795171 -0.732037 -0.676608 0.0137768 -0.81492 -0.57941 
0.0138017 -0.814891 -0.579449 -0.0520457 -0.880807 -0.470606 -0.0520735 -0.880831 -0.470557 
-0.116887 -0.92868 -0.351982 -0.116818 -0.928637 -0.352117 0.887877 -0.256545 0.381914 
0.887926 -0.25648 0.381845 -0.455143 -0.369709 0.810037 -0.455143 -0.369715 0.810034 
-0.887922 0.256485 -0.381851 -0.88792 0.256488 -0.381854 -0.887924 0.256481 -0.381848 
-0.14846 -0.945487 -0.289853 -0.148461 -0.945487 -0.289851 0.887925 -0.256481 0.381846 
0.887918 -0.256487 0.381859 -0.451988 -0.332335 0.827805 -0.451988 -0.332329 0.827807 
-0.887948 0.256462 -0.381806 -0.887923 0.256484 -0.38185 -0.887911 0.256509 -0.381861 
-0.174765 -0.955975 -0.23573 -0.174849 -0.956004 -0.235552 0.88797 -0.256383 0.381807 
0.887922 -0.256484 0.381852 -0.448054 -0.294384 0.844148 -0.448054 -0.294383 0.844148 
-0.453566 -0.349949 0.819642 -0.453567 -0.349972 0.819632 -0.459539 -0.457941 0.760996 
-0.459531 -0.457592 0.76121 -0.458591 -0.55824 0.691421 -0.458577 -0.558548 0.691182 
-0.450735 -0.650793 0.610988 -0.45077 -0.650532 0.61124 -0.436195 -0.73301 0.521948 
-0.436161 -0.733155 0.521774 -0.415098 -0.804456 0.424904 -0.415136 -0.804356 0.425057 
-0.387697 -0.864024 0.321174 -0.387679 -0.864056 0.32111 -0.354535 -0.910495 0.212847 
-0.354525 -0.910506 0.212818 -0.316092 -0.943292 0.101424 -0.316092 -0.943292 0.101424 
-0.272807 -0.961996 -0.0117912 -0.272843 -0.961987 -0.0117025 -0.887968 0.256407 -0.381796 
-0.887903 0.256524 -0.381869 -0.225576 -0.966241 -0.124471 -0.225581 -0.966242 -0.124459 
0.887943 -0.256437 0.381835 0.887903 -0.256508 0.381879 0.887894 -0.256523 0.38189 
0.887998 -0.256361 0.381757 0.888086 -0.256235 0.381638 0.887615 -0.25686 0.382312 
0.888106 -0.256262 0.381572 0.888123 -0.256239 0.381548 0.888483 -0.2558 0.381004 
0.887216 -0.257485 0.382819 -0.887888 0.256541 -0.381892 -0.887944 0.256453 -0.38182 
-0.88797 0.256416 -0.381785 -0.887823 0.256612 -0.381996 -0.888025 0.256366 -0.381692 
-0.887717 0.256775 -0.382132 -0.888118 0.256287 -0.381528 -0.888312 0.256029 -0.38125 
-0.594 0.485472 -0.641467 -0.593952 0.485495 -0.641495 -0.69369 0.428542 -0.578918 
-0.693759 0.428501 -0.578865 -0.781612 0.36422 -0.506386 -0.781582 0.364243 -0.506416 
-0.856079 0.293726 -0.425269 -0.8561 0.293705 -0.425242 -0.916648 0.217115 -0.335584 
-0.916648 0.217114 -0.335586 -0.916648 0.217115 -0.335586 0.0471506 -0.774998 -0.630202 
0.0471502 -0.774999 -0.630201 0.0471589 -0.775001 -0.630197 0.0471584 -0.775002 -0.630197 
0.0471503 -0.775 -0.6302 0.0471491 -0.775 -0.6302 0.0471149 -0.77499 -0.630215 
0.0471512 -0.775 -0.6302 0.0471412 -0.774997 -0.630204 0.047186 -0.77501 -0.630185 
0.0471138 -0.77499 -0.630214 0.0471292 -0.774994 -0.630208 0.0471539 -0.775001 -0.630199 
0.0471595 -0.775002 -0.630197 0.0471079 -0.774989 -0.630216 0.0472747 -0.77503 -0.630154 
0.0470201 -0.774969 -0.630248 0.047626 -0.775113 -0.630025 -0.484065 0.534139 -0.693092 
-0.484067 0.534139 -0.693091 -0.0471505 0.774999 0.6302 -0.0472186 0.775016 0.630175 
-0.0469985 0.774963 0.630257 -0.0472269 0.775018 0.630172 -0.0472066 0.775013 0.63018 
-0.0470829 0.774983 0.630226 -0.0472618 0.775028 0.630157 -0.0471152 0.77499 0.630214 
-0.0471271 0.774993 0.63021 -0.0471404 0.774997 0.630204 -0.0471552 0.775001 0.630198 
-0.0471654 0.775004 0.630194 -0.0471503 0.774999 0.630201 -0.0471503 0.774999 0.6302 
-0.457566 -0.577569 0.676053 -0.457565 -0.577571 0.676051 0.855191 -0.294691 0.426386 
0.855192 -0.294689 0.426386 0.855192 -0.29469 0.426385 0.915934 -0.218181 0.33684 
0.915946 -0.218163 0.336821 0.960136 -0.138862 0.242605 0.96013 -0.138875 0.242619 
0.98788 -0.0572252 0.144284 0.987881 -0.0572233 0.144281 0.998732 0.0254246 0.0434548 
0.998732 0.0254206 0.0434592 0.992492 0.107629 -0.0581053 0.992493 0.107619 -0.0580941 
0.969272 0.187983 -0.158662 0.969266 0.188001 -0.158682 0.929475 0.265116 -0.256494 
0.929461 0.265137 -0.256524 0.0470729 -0.774996 -0.630211 0.0472302 -0.774992 -0.630204 
0.0470692 -0.775002 -0.630203 0.0472632 -0.774981 -0.630214 0.0470649 -0.775011 -0.630192 
0.0471405 -0.774997 -0.630205 0.0471784 -0.775008 -0.630188 0.514689 0.55955 -0.649615 
0.514636 0.559566 -0.649643 -0.0471148 0.775005 0.630196 -0.0471454 0.774998 0.630203 
-0.0471537 0.774998 0.630202 -0.0470597 0.775012 0.630192 -0.047168 0.775 0.630198 
-0.0472087 0.774997 0.630199 -0.0472006 0.774998 0.630199 -0.0470287 0.774995 0.630215 
-0.0472943 0.77501 0.630176 -0.0473204 0.775013 0.630171 -0.0472094 0.774997 0.630199 
-0.0469519 0.774948 0.630279 0.873763 0.337732 -0.349966 0.873762 0.337732 -0.349967 
0.803098 0.404566 -0.437446 0.803074 0.404585 -0.437473 0.718667 0.464491 -0.51746 
0.718744 0.464447 -0.517393 0.621993 0.516439 -0.58857 0.62195 0.516458 -0.5886 
0.457566 0.577572 -0.676051 0.457566 0.577572 -0.676051 0.398536 0.593104 -0.699569 
0.398459 0.59312 -0.699599 0.27555 0.616508 -0.737557 0.275556 0.616507 -0.737555 
0.14785 0.629362 -0.762918 0.147852 0.629362 -0.762918 0.0176378 0.631444 -0.775221 
0.0177107 0.631448 -0.775216 -0.112897 0.622722 -0.774256 -0.112895 0.622722 -0.774256 
-0.241319 0.603374 -0.760069 -0.241459 0.603342 -0.76005 -0.365878 0.573649 -0.732844 
-0.365942 0.573633 -0.732824 0.047197 -0.774998 -0.630199 0.0471298 -0.774994 -0.630209 
0.0473192 -0.775013 -0.630171 0.0472101 -0.774997 -0.630199 0.0478088 -0.775111 -0.630014 

POINT_DATA 876
SCALARS scalars double
LOOKUP_TABLE default
0.30904 0.313843 0.319433 0.710575 0.802838 0.636882 0.322964 0.67892 0.322964 
0.313843 0.319433 0.30904 0.67892 0.710575 0.802838 0.636882 0.262599 0.227348 
0.237787 0.248346 0.289233 0.269944 0.299862 0.326968 0.327143 0.365872 0.286502 
0.253199 0.397563 0.433054 0.245234 0.436419 0.27659 0.405061 0.314657 0.359192 
0.350556 0.39195 0.419361 0.416459 0.385282 0.354392 0.319294 0.285408 0.29069 
0.314005 0.335479 0.351851 0.3514 0.33434 0.307647 0.278541 0.25109 0.226771 
0.224916 0.248499 0.274888 0.302551 0.327585 0.343391 0.343807 0.328644 0.307168 
0.267777 0.240486 0.242837 0.273021 0.309158 0.262599 0.237787 0.289233 0.269944 
0.326968 0.286502 0.299862 0.267777 0.248346 0.227348 0.224916 0.248499 0.274888 
0.302551 0.327585 0.343391 0.343807 0.328644 0.307168 0.285408 0.319294 0.327143 
0.365872 0.397563 0.433054 0.436419 0.405061 0.359192 0.314657 0.27659 0.245234 
0.253199 0.29069 0.314005 0.335479 0.351851 0.3514 0.33434 0.307647 0.278541 
0.25109 0.226771 0.354392 0.385282 0.416459 0.419361 0.39195 0.350556 0.309158 
0.273021 0.242837 0.240486 0.371457 0.379994 0.408056 0.363239 0.353609 0.342046 
0.439468 0.446676 0.3653 0.420505 0.491937 0.522981 0.465993 0.494198 0.622664 
0.506862 0.68243 0.588482 0.647025 0.651237 0.519179 0.494062 0.448977 0.441245 
0.427521 0.393328 0.348373 0.311865 0.323107 0.355052 0.376105 0.390357 0.413081 
0.446354 0.477898 0.47158 0.495272 0.466773 0.409112 0.421549 0.423018 0.427164 
0.408167 0.383768 0.366215 0.357441 0.339663 0.474044 0.494885 0.513617 0.50914 
0.512832 0.371457 0.408056 0.353609 0.342046 0.446676 0.491937 0.439468 0.474044 
0.363239 0.379994 0.409112 0.421549 0.423018 0.427164 0.408167 0.383768 0.366215 
0.357441 0.339663 0.311865 0.348373 0.3653 0.420505 0.465993 0.494198 0.506862 
0.588482 0.651237 0.647025 0.68243 0.622664 0.522981 0.323107 0.355052 0.376105 
0.390357 0.413081 0.446354 0.477898 0.47158 0.495272 0.466773 0.393328 0.427521 
0.441245 0.448977 0.494062 0.519179 0.512832 0.50914 0.513617 0.494885 0.364872 
0.347534 0.354952 0.35733 0.58862 0.959759 0.676348 0.492927 0.35733 0.347534 
0.364872 0.354952 0.492927 0.676348 0.959759 0.58862 0.357677 0.368385 0.360466 
0.365655 0.354899 0.363062 0.352189 0.360649 0.349598 0.358453 0.356505 0.34717 
0.426435 0.431245 0.431608 0.423401 0.409666 0.463488 0.467872 0.485549 0.545936 
0.574139 0.559363 0.507261 0.354833 0.344944 0.342952 0.34122 0.339771 0.338622 
0.337785 0.41372 0.500556 0.39395 0.469435 0.365616 0.50632 0.374301 0.467473 
0.335104 0.451593 0.850112 0.52417 0.641482 0.615238 0.65195 0.642783 0.642121 
0.669239 0.703013 0.700744 0.660421 0.654828 0.65857 0.824323 0.79231 0.923345 
0.772327 0.778956 0.850847 0.823417 0.794063 0.837675 0.351158 0.351234 0.351646 
0.352389 0.353456 0.351418 0.33727 0.420131 0.499241 0.346189 0.313361 0.375016 
0.435054 0.353147 0.345849 0.312903 0.317131 0.351763 0.316109 0.350492 0.315193 
0.349345 0.314393 0.348338 0.313717 0.347481 0.313174 0.346781 0.312768 0.346248 
0.312505 0.345885 0.312386 0.345697 0.312413 0.312586 0.345685 0.368385 0.365655 
0.360466 0.467872 0.65857 0.824323 0.79231 0.923345 0.772327 0.778956 0.850847 
0.823417 0.794063 0.837675 0.850112 0.52417 0.451593 0.467473 0.50632 0.469435 
0.485549 0.545936 0.574139 0.559363 0.507261 0.500556 0.499241 0.435054 0.353147 
0.317131 0.351763 0.350492 0.349345 0.348338 0.347481 0.346781 0.346248 0.345885 
0.345697 0.345685 0.345849 0.346189 0.351418 0.313361 0.312903 0.33727 0.337785 
0.338622 0.339771 0.34122 0.342952 0.344944 0.34717 0.349598 0.352189 0.354899 
0.357677 0.463488 0.654828 0.660421 0.700744 0.703013 0.669239 0.642121 0.642783 
0.65195 0.615238 0.641482 0.335104 0.374301 0.365616 0.39395 0.409666 0.423401 
0.431608 0.431245 0.426435 0.41372 0.420131 0.375016 0.316109 0.315193 0.314393 
0.313717 0.313174 0.312768 0.312505 0.312386 0.312413 0.312586 0.351158 0.351234 
0.351646 0.352389 0.353456 0.354833 0.356505 0.358453 0.360649 0.363062 0.465378 
0.496993 0.461652 0.50631 0.470131 0.517038 0.475948 0.529274 0.482867 0.543135 
0.803009 0.353609 0.451593 0.52417 0.335104 0.511175 0.577061 0.482071 0.473023 
0.465203 0.458551 0.456621 0.456424 0.457192 0.458931 0.492927 0.492059 0.492262 
0.493531 0.49588 0.499331 0.503912 0.509666 0.622582 0.269944 0.677704 0.721012 
0.665874 0.711566 0.654334 0.701777 0.643264 0.691906 0.632795 0.682166 0.623019 
0.672726 0.613996 0.663715 0.655228 0.605768 0.598356 0.591777 0.586033 0.581129 
0.627698 0.633542 0.640097 0.647338 0.654334 0.643264 0.665874 0.677704 0.511175 